384
Properties=species:S:1:pos:R:3:forces:R:3 potential_energy=0.000000 pbc="T T T" Lattice="15.586699 0.000000 0.000000 0.000000 15.586699 0.000000 0.000000 0.000000 15.586699"
  O        12.5323000000        1.7026013472        8.0385200000        0.0000000000        0.0000000000        0.0000000000
  H        13.4717000000        2.0271013472        8.0671700000        0.0000000000        0.0000000000        0.0000000000
  H        12.5049000000        1.0961013472        8.8577500000        0.0000000000        0.0000000000        0.0000000000
  O         3.0263800000        7.5494000000       12.5945000000        0.0000000000        0.0000000000        0.0000000000
  H         2.3160800000        7.1668100000       11.9238000000        0.0000000000        0.0000000000        0.0000000000
  H         2.6667900000        7.2547100000       13.4857000000        0.0000000000        0.0000000000        0.0000000000
  O         2.0698013472        4.7362500000       13.5726000000        0.0000000000        0.0000000000        0.0000000000
  H         2.8006100000        5.0226700000       14.2087000000        0.0000000000        0.0000000000        0.0000000000
  H         1.3187013472        4.3880000000       14.2590000000        0.0000000000        0.0000000000        0.0000000000
  O         8.8386300000       15.1584000000       13.7395000000        0.0000000000        0.0000000000        0.0000000000
  H         8.7665700000       15.2411000000       12.7385000000        0.0000000000        0.0000000000        0.0000000000
  H         9.2508900000       14.1809000000       13.8516000000        0.0000000000        0.0000000000        0.0000000000
  O         5.7313900000        5.0184900000       10.1383000000        0.0000000000        0.0000000000        0.0000000000
  H         4.8949100000        4.3775800000       10.1730000000        0.0000000000        0.0000000000        0.0000000000
  H         5.4606600000        5.9224300000       10.5539000000        0.0000000000        0.0000000000        0.0000000000
  O         9.9424800000        8.4609500000        6.7224400000        0.0000000000        0.0000000000        0.0000000000
  H        10.2750000000        9.4301400000        6.9854400000        0.0000000000        0.0000000000        0.0000000000
  H        10.2278000000        7.8084400000        7.5086400000        0.0000000000        0.0000000000        0.0000000000
  O        11.9805000000       14.5252000000       15.5814000000        0.0000000000        0.0000000000        0.0000000000
  H        11.8631000000       15.4879000000       15.3251000000        0.0000000000        0.0000000000        0.0000000000
  H        11.0775000000       14.0344000000        0.1458013472        0.0000000000        0.0000000000        0.0000000000
  O        14.8788000000       14.6884000000        7.2219900000        0.0000000000        0.0000000000        0.0000000000
  H        15.3472000000        0.0066013472        6.9746500000        0.0000000000        0.0000000000        0.0000000000
  H        14.1421000000       14.9970000000        7.9111600000        0.0000000000        0.0000000000        0.0000000000
  O        10.9810000000        7.7462400000        4.2322800000        0.0000000000        0.0000000000        0.0000000000
  H        11.9428000000        7.8449900000        4.3773500000        0.0000000000        0.0000000000        0.0000000000
  H        10.6411000000        8.0252800000        5.1552900000        0.0000000000        0.0000000000        0.0000000000
  O         4.5418200000       12.8359000000        4.8359500000        0.0000000000        0.0000000000        0.0000000000
  H         5.1896400000       12.0761000000        4.6456900000        0.0000000000        0.0000000000        0.0000000000
  H         3.6920800000       12.7214000000        4.3909500000        0.0000000000        0.0000000000        0.0000000000
  O         2.8240000000        4.5273700000        6.7173100000        0.0000000000        0.0000000000        0.0000000000
  H         3.5262200000        3.7960200000        6.6253600000        0.0000000000        0.0000000000        0.0000000000
  H         2.1773013472        4.1694700000        7.4631400000        0.0000000000        0.0000000000        0.0000000000
  O         2.1505013472       10.4748000000        6.1824500000        0.0000000000        0.0000000000        0.0000000000
  H         1.7976013472       11.4002000000        6.4606400000        0.0000000000        0.0000000000        0.0000000000
  H         1.9323013472        9.8760700000        6.9972200000        0.0000000000        0.0000000000        0.0000000000
  O        10.6314000000       10.8983000000        7.3291700000        0.0000000000        0.0000000000        0.0000000000
  H        10.4583000000       11.8558000000        7.4476900000        0.0000000000        0.0000000000        0.0000000000
  H        11.5740000000       10.6642000000        7.7339400000        0.0000000000        0.0000000000        0.0000000000
  O        11.7977000000        0.9654013472        5.5978500000        0.0000000000        0.0000000000        0.0000000000
  H        12.1579000000        1.1099013472        6.5602500000        0.0000000000        0.0000000000        0.0000000000
  H        10.8787000000        1.3470013472        5.5997700000        0.0000000000        0.0000000000        0.0000000000
  O         2.0448013472        0.3314013472        2.9565200000        0.0000000000        0.0000000000        0.0000000000
  H         1.0586013472        0.2412013472        3.2640300000        0.0000000000        0.0000000000        0.0000000000
  H         2.2441700000        1.3467013472        3.0717400000        0.0000000000        0.0000000000        0.0000000000
  O         9.6421400000        3.0014700000        8.3492900000        0.0000000000        0.0000000000        0.0000000000
  H        10.4326000000        3.1162600000        7.6433100000        0.0000000000        0.0000000000        0.0000000000
  H        10.0884000000        3.5493000000        9.0272100000        0.0000000000        0.0000000000        0.0000000000
  O         5.2931700000        9.3246200000        8.2710900000        0.0000000000        0.0000000000        0.0000000000
  H         5.6217200000        9.9780500000        7.5611200000        0.0000000000        0.0000000000        0.0000000000
  H         5.9229700000        8.5902400000        8.4042500000        0.0000000000        0.0000000000        0.0000000000
  O         0.9583013472       10.9003000000        3.6232300000        0.0000000000        0.0000000000        0.0000000000
  H         1.5222013472       11.7702000000        3.4866300000        0.0000000000        0.0000000000        0.0000000000
  H         1.3306013472       10.5544000000        4.4917000000        0.0000000000        0.0000000000        0.0000000000
  O        12.4351000000        9.7122600000       14.3664000000        0.0000000000        0.0000000000        0.0000000000
  H        12.8494000000       10.3390000000       15.0787000000        0.0000000000        0.0000000000        0.0000000000
  H        12.0642000000        8.8952200000       14.9201000000        0.0000000000        0.0000000000        0.0000000000
  O        13.1016000000        9.8040700000        7.8882900000        0.0000000000        0.0000000000        0.0000000000
  H        13.4404000000       10.5510000000        8.4517500000        0.0000000000        0.0000000000        0.0000000000
  H        13.5323000000        9.7705900000        6.9934700000        0.0000000000        0.0000000000        0.0000000000
  O         6.4332400000        2.2311500000        4.1854500000        0.0000000000        0.0000000000        0.0000000000
  H         6.1944100000        2.4658200000        3.1794600000        0.0000000000        0.0000000000        0.0000000000
  H         6.3833700000        1.2206013472        4.2223100000        0.0000000000        0.0000000000        0.0000000000
  O        13.5861000000        6.8238900000        9.4689300000        0.0000000000        0.0000000000        0.0000000000
  H        12.6382000000        7.0848200000        9.2063400000        0.0000000000        0.0000000000        0.0000000000
  H        13.4170000000        6.2777100000       10.2525000000        0.0000000000        0.0000000000        0.0000000000
  O         8.8892300000        9.2564000000       10.2541000000        0.0000000000        0.0000000000        0.0000000000
  H         9.9173000000        9.3805600000       10.3568000000        0.0000000000        0.0000000000        0.0000000000
  H         8.6677100000       10.2167000000       10.1602000000        0.0000000000        0.0000000000        0.0000000000
  O         5.7946100000        0.0522013472       11.1283000000        0.0000000000        0.0000000000        0.0000000000
  H         6.5016100000        0.7397013472       11.2325000000        0.0000000000        0.0000000000        0.0000000000
  H         5.2432800000        0.2641013472       11.9154000000        0.0000000000        0.0000000000        0.0000000000
  O        14.3357000000       13.4612000000        0.7981013472        0.0000000000        0.0000000000        0.0000000000
  H        15.1347000000       14.1237000000        0.6459013472        0.0000000000        0.0000000000        0.0000000000
  H        13.4948000000       13.7733000000        0.3083013472        0.0000000000        0.0000000000        0.0000000000
  O         1.4519013472       13.0915000000        6.6278700000        0.0000000000        0.0000000000        0.0000000000
  H         0.5733013472       13.5086000000        6.9190600000        0.0000000000        0.0000000000        0.0000000000
  H         2.0441013472       13.9016000000        6.7085200000        0.0000000000        0.0000000000        0.0000000000
  O        14.3622000000        6.1885900000       15.1796000000        0.0000000000        0.0000000000        0.0000000000
  H        14.0430000000        6.8478300000        0.3258013472        0.0000000000        0.0000000000        0.0000000000
  H        14.7491000000        6.8532400000       14.5291000000        0.0000000000        0.0000000000        0.0000000000
  O        13.5990000000        9.2456600000       12.0599000000        0.0000000000        0.0000000000        0.0000000000
  H        13.2431000000        9.5376500000       12.9892000000        0.0000000000        0.0000000000        0.0000000000
  H        14.5636000000        9.0865300000       12.2471000000        0.0000000000        0.0000000000        0.0000000000
  O        10.6848000000       14.5198000000        4.1119000000        0.0000000000        0.0000000000        0.0000000000
  H        10.8908000000       15.3744000000        4.6516300000        0.0000000000        0.0000000000        0.0000000000
  H        11.5863000000       14.0526000000        3.8599500000        0.0000000000        0.0000000000        0.0000000000
  O        12.0886000000       10.2016000000        1.7264013472        0.0000000000        0.0000000000        0.0000000000
  H        12.7748000000       10.9032000000        2.0622013472        0.0000000000        0.0000000000        0.0000000000
  H        12.6200000000        9.3415200000        1.7274013472        0.0000000000        0.0000000000        0.0000000000
  O        13.5672000000       13.8069000000        4.9683700000        0.0000000000        0.0000000000        0.0000000000
  H        14.3146000000       13.9176000000        5.6279200000        0.0000000000        0.0000000000        0.0000000000
  H        13.7619000000       13.0013000000        4.3896100000        0.0000000000        0.0000000000        0.0000000000
  O         6.1633500000        0.2496013472       14.3889000000        0.0000000000        0.0000000000        0.0000000000
  H         7.0600900000       15.4534000000       14.0999000000        0.0000000000        0.0000000000        0.0000000000
  H         6.1335100000        0.1147013472       15.4412000000        0.0000000000        0.0000000000        0.0000000000
  O         5.1712600000       13.3934000000        7.6172300000        0.0000000000        0.0000000000        0.0000000000
  H         4.9471900000       14.3282000000        7.9276000000        0.0000000000        0.0000000000        0.0000000000
  H         4.9112500000       13.1860000000        6.6321400000        0.0000000000        0.0000000000        0.0000000000
  O         5.3811500000        7.0859100000       11.4447000000        0.0000000000        0.0000000000        0.0000000000
  H         6.1743900000        7.5254600000       11.8980000000        0.0000000000        0.0000000000        0.0000000000
  H         4.6400900000        7.5144300000       11.9656000000        0.0000000000        0.0000000000        0.0000000000
  O        11.8995000000        5.7760400000       14.1247000000        0.0000000000        0.0000000000        0.0000000000
  H        11.2832000000        6.0578700000       14.9027000000        0.0000000000        0.0000000000        0.0000000000
  H        12.7668000000        5.9441700000       14.5663000000        0.0000000000        0.0000000000        0.0000000000
  O        12.0712000000        2.1868013472       11.8288000000        0.0000000000        0.0000000000        0.0000000000
  H        13.0707000000        2.0495013472       12.1020000000        0.0000000000        0.0000000000        0.0000000000
  H        11.4800000000        2.0088013472       12.6417000000        0.0000000000        0.0000000000        0.0000000000
  O         3.3636000000        9.0346200000        1.5499013472        0.0000000000        0.0000000000        0.0000000000
  H         4.0671800000        9.6603000000        1.0496013472        0.0000000000        0.0000000000        0.0000000000
  H         3.5225100000        8.9930300000        2.5740000000        0.0000000000        0.0000000000        0.0000000000
  O        15.4727000000        8.5689400000       14.0219000000        0.0000000000        0.0000000000        0.0000000000
  H         0.5678013472        9.0132100000       13.4297000000        0.0000000000        0.0000000000        0.0000000000
  H        15.1817000000        9.3366500000       14.6237000000        0.0000000000        0.0000000000        0.0000000000
  O         5.6092200000        2.2305100000        1.5148013472        0.0000000000        0.0000000000        0.0000000000
  H         4.6425000000        2.1179013472        1.7542013472        0.0000000000        0.0000000000        0.0000000000
  H         5.9170600000        1.2452013472        1.3016013472        0.0000000000        0.0000000000        0.0000000000
  O         1.1271013472       13.3617000000        9.7315600000        0.0000000000        0.0000000000        0.0000000000
  H         1.8826013472       12.7496000000        9.4280800000        0.0000000000        0.0000000000        0.0000000000
  H         1.0251013472       14.2349000000        9.2424700000        0.0000000000        0.0000000000        0.0000000000
  O         4.3152200000       11.3595000000       13.1340000000        0.0000000000        0.0000000000        0.0000000000
  H         4.2149100000       10.9249000000       12.2462000000        0.0000000000        0.0000000000        0.0000000000
  H         3.5151200000       12.0090000000       13.1592000000        0.0000000000        0.0000000000        0.0000000000
  O         2.9750700000        6.6292400000        5.2003500000        0.0000000000        0.0000000000        0.0000000000
  H         2.6493000000        5.9065100000        5.8547600000        0.0000000000        0.0000000000        0.0000000000
  H         3.4987700000        6.0344900000        4.5598700000        0.0000000000        0.0000000000        0.0000000000
  O        12.8570000000        4.5292000000        3.4824500000        0.0000000000        0.0000000000        0.0000000000
  H        11.9386000000        4.9452300000        3.2227700000        0.0000000000        0.0000000000        0.0000000000
  H        13.5186000000        5.2153500000        3.2634500000        0.0000000000        0.0000000000        0.0000000000
  O         9.9068700000       14.2564000000       10.8416000000        0.0000000000        0.0000000000        0.0000000000
  H        10.7191000000       14.6118000000       11.3295000000        0.0000000000        0.0000000000        0.0000000000
  H         9.6303400000       15.0603000000       10.3044000000        0.0000000000        0.0000000000        0.0000000000
  O         9.8938800000        6.5198800000       12.2017000000        0.0000000000        0.0000000000        0.0000000000
  H         9.8833600000        7.2623500000       11.5529000000        0.0000000000        0.0000000000        0.0000000000
  H        10.7381000000        6.4078400000       12.7105000000        0.0000000000        0.0000000000        0.0000000000
  O         4.6323700000        0.3911013472        8.3033100000        0.0000000000        0.0000000000        0.0000000000
  H         4.8626200000        1.2551013472        7.7933700000        0.0000000000        0.0000000000        0.0000000000
  H         4.8323500000        0.4557013472        9.2763700000        0.0000000000        0.0000000000        0.0000000000
  O         1.8459013472        3.5918500000        9.0584800000        0.0000000000        0.0000000000        0.0000000000
  H         1.1986013472        4.1100800000        9.5382500000        0.0000000000        0.0000000000        0.0000000000
  H         2.5834100000        3.4788300000        9.7301600000        0.0000000000        0.0000000000        0.0000000000
  O         7.6503200000        3.7378200000        0.6929013472        0.0000000000        0.0000000000        0.0000000000
  H         7.2697600000        4.6457900000        0.5150013472        0.0000000000        0.0000000000        0.0000000000
  H         6.9593100000        3.2344400000        1.2066013472        0.0000000000        0.0000000000        0.0000000000
  O         6.7927700000        4.2033300000        7.8456500000        0.0000000000        0.0000000000        0.0000000000
  H         7.7588100000        4.1966300000        8.0974000000        0.0000000000        0.0000000000        0.0000000000
  H         6.3881800000        4.4158200000        8.7587600000        0.0000000000        0.0000000000        0.0000000000
  O         7.1691200000       11.4432000000       12.9212000000        0.0000000000        0.0000000000        0.0000000000
  H         7.4775000000       11.8600000000       13.7256000000        0.0000000000        0.0000000000        0.0000000000
  H         6.1633300000       11.4139000000       12.9522000000        0.0000000000        0.0000000000        0.0000000000
  O         0.2630013472       14.4535000000       12.2437000000        0.0000000000        0.0000000000        0.0000000000
  H        14.8249000000       14.5116000000       12.2136000000        0.0000000000        0.0000000000        0.0000000000
  H         0.5159013472       13.9705000000       11.2946000000        0.0000000000        0.0000000000        0.0000000000
  O         3.9973200000        9.0693600000        4.5648200000        0.0000000000        0.0000000000        0.0000000000
  H         3.3229600000        9.6131700000        5.1357100000        0.0000000000        0.0000000000        0.0000000000
  H         3.8722400000        8.1622800000        5.0344300000        0.0000000000        0.0000000000        0.0000000000
  O        12.8737000000       14.5132000000       12.2995000000        0.0000000000        0.0000000000        0.0000000000
  H        12.5766000000       14.9804000000       13.1356000000        0.0000000000        0.0000000000        0.0000000000
  H        12.6979000000       13.5715000000       12.5312000000        0.0000000000        0.0000000000        0.0000000000
  O        10.9687000000        1.2056013472       13.9895000000        0.0000000000        0.0000000000        0.0000000000
  H        10.7498000000        1.7416013472       14.8245000000        0.0000000000        0.0000000000        0.0000000000
  H        10.1542000000        0.5758013472       13.9540000000        0.0000000000        0.0000000000        0.0000000000
  O         8.3222600000       13.2637000000        4.6449700000        0.0000000000        0.0000000000        0.0000000000
  H         8.3842300000       12.2642000000        4.6985000000        0.0000000000        0.0000000000        0.0000000000
  H         9.2912000000       13.6657000000        4.5827700000        0.0000000000        0.0000000000        0.0000000000
  O         1.0641013472        0.8512013472        9.4263600000        0.0000000000        0.0000000000        0.0000000000
  H         1.4491013472        0.9518013472       10.3692000000        0.0000000000        0.0000000000        0.0000000000
  H         1.6279013472        1.3161013472        8.7457000000        0.0000000000        0.0000000000        0.0000000000
  O         6.9252500000       12.8584000000        2.3549000000        0.0000000000        0.0000000000        0.0000000000
  H         6.2413200000       12.3678000000        2.9322300000        0.0000000000        0.0000000000        0.0000000000
  H         7.7691600000       12.9687000000        2.8833400000        0.0000000000        0.0000000000        0.0000000000
  O         2.1350013472       13.1324000000        3.0585300000        0.0000000000        0.0000000000        0.0000000000
  H         2.3512200000       13.0428000000        2.0536013472        0.0000000000        0.0000000000        0.0000000000
  H         1.9947013472       14.1012000000        3.1863100000        0.0000000000        0.0000000000        0.0000000000
  O         7.3377100000       11.7246000000       15.5791000000        0.0000000000        0.0000000000        0.0000000000
  H         8.2194900000       11.5139000000        0.4407013472        0.0000000000        0.0000000000        0.0000000000
  H         7.0088700000       12.2165000000        0.8044013472        0.0000000000        0.0000000000        0.0000000000
  O         0.7102013472        7.7302300000        5.8323900000        0.0000000000        0.0000000000        0.0000000000
  H         0.9491013472        8.1546100000        6.7098700000        0.0000000000        0.0000000000        0.0000000000
  H         1.5425013472        7.2690500000        5.4960900000        0.0000000000        0.0000000000        0.0000000000
  O        12.9669000000        4.7694300000       11.2702000000        0.0000000000        0.0000000000        0.0000000000
  H        12.6325000000        3.8435200000       11.3587000000        0.0000000000        0.0000000000        0.0000000000
  H        12.5887000000        5.0407700000       12.1927000000        0.0000000000        0.0000000000        0.0000000000
  O        13.6255000000        8.0759600000        1.5754013472        0.0000000000        0.0000000000        0.0000000000
  H        14.5059000000        8.5891600000        1.3653013472        0.0000000000        0.0000000000        0.0000000000
  H        13.6985000000        8.1364800000        2.5683400000        0.0000000000        0.0000000000        0.0000000000
  O         8.2629400000        8.0776700000       14.8315000000        0.0000000000        0.0000000000        0.0000000000
  H         7.9637500000        8.9543400000       15.1890000000        0.0000000000        0.0000000000        0.0000000000
  H         7.9713600000        8.2107200000       13.8244000000        0.0000000000        0.0000000000        0.0000000000
  O         6.5322400000        6.3714400000        5.9807900000        0.0000000000        0.0000000000        0.0000000000
  H         6.3073700000        5.6076400000        6.6976800000        0.0000000000        0.0000000000        0.0000000000
  H         6.8982000000        7.1165700000        6.5377300000        0.0000000000        0.0000000000        0.0000000000
  O         5.9998000000       10.6456000000        4.4831000000        0.0000000000        0.0000000000        0.0000000000
  H         6.3621000000       10.4578000000        5.4528700000        0.0000000000        0.0000000000        0.0000000000
  H         5.4379900000        9.8963000000        4.2949100000        0.0000000000        0.0000000000        0.0000000000
  O         3.1161700000        3.0548300000        2.9335200000        0.0000000000        0.0000000000        0.0000000000
  H         2.8071100000        3.1650600000        1.9572013472        0.0000000000        0.0000000000        0.0000000000
  H         3.6856900000        3.9281700000        3.0807100000        0.0000000000        0.0000000000        0.0000000000
  O        14.1959000000       12.0214000000        8.9418400000        0.0000000000        0.0000000000        0.0000000000
  H        14.9999000000       12.5546000000        9.2399900000        0.0000000000        0.0000000000        0.0000000000
  H        13.5763000000       12.6369000000        8.3877200000        0.0000000000        0.0000000000        0.0000000000
  O         9.1535700000        1.7539013472        5.6253300000        0.0000000000        0.0000000000        0.0000000000
  H         8.2496500000        1.2908013472        5.6696900000        0.0000000000        0.0000000000        0.0000000000
  H         9.0599300000        2.4826800000        6.3486000000        0.0000000000        0.0000000000        0.0000000000
  O        14.9417000000        0.5254013472        3.3687100000        0.0000000000        0.0000000000        0.0000000000
  H        14.3761000000       15.2359000000        3.2829500000        0.0000000000        0.0000000000        0.0000000000
  H        14.2499000000        1.2910013472        3.3123500000        0.0000000000        0.0000000000        0.0000000000
  O         2.3026100000        2.6589300000        0.2326013472        0.0000000000        0.0000000000        0.0000000000
  H         1.3879013472        3.0752200000       15.5207000000        0.0000000000        0.0000000000        0.0000000000
  H         2.8262100000        2.7955100000       14.9547000000        0.0000000000        0.0000000000        0.0000000000
  O         7.3778800000       10.1053000000        6.7186200000        0.0000000000        0.0000000000        0.0000000000
  H         7.8307600000       10.9555000000        7.0347100000        0.0000000000        0.0000000000        0.0000000000
  H         8.0940500000        9.3840400000        7.0293000000        0.0000000000        0.0000000000        0.0000000000
  O         0.6455013472        9.1851800000        1.7378013472        0.0000000000        0.0000000000        0.0000000000
  H         1.5969013472        8.8310800000        1.5632013472        0.0000000000        0.0000000000        0.0000000000
  H         0.6851013472        9.7659900000        2.6199500000        0.0000000000        0.0000000000        0.0000000000
  O         8.4045800000        3.8591600000       13.7167000000        0.0000000000        0.0000000000        0.0000000000
  H         8.1786400000        3.7801500000       14.7461000000        0.0000000000        0.0000000000        0.0000000000
  H         9.1244800000        4.5514200000       13.7020000000        0.0000000000        0.0000000000        0.0000000000
  O         4.9304200000       10.6789000000        0.0945013472        0.0000000000        0.0000000000        0.0000000000
  H         4.3975700000       10.8196000000       14.8846000000        0.0000000000        0.0000000000        0.0000000000
  H         5.8889600000       10.9308000000       15.3886000000        0.0000000000        0.0000000000        0.0000000000
  O         6.5847500000        6.5241700000        1.3415013472        0.0000000000        0.0000000000        0.0000000000
  H         7.1864500000        6.9762100000        1.9924013472        0.0000000000        0.0000000000        0.0000000000
  H         6.8741200000        6.9179300000        0.4152013472        0.0000000000        0.0000000000        0.0000000000
  O         2.0521013472       12.5975000000       13.1927000000        0.0000000000        0.0000000000        0.0000000000
  H         1.5351013472       13.3858000000       12.9179000000        0.0000000000        0.0000000000        0.0000000000
  H         1.5220013472       11.8062000000       12.9332000000        0.0000000000        0.0000000000        0.0000000000
  O        10.8289000000        2.0237013472        1.0119013472        0.0000000000        0.0000000000        0.0000000000
  H        10.0539000000        2.7107900000        1.1509013472        0.0000000000        0.0000000000        0.0000000000
  H        11.5342000000        2.2411000000        1.7203013472        0.0000000000        0.0000000000        0.0000000000
  O         9.7485500000       15.2627000000        7.8360000000        0.0000000000        0.0000000000        0.0000000000
  H         9.4674500000        0.4657013472        7.2623800000        0.0000000000        0.0000000000        0.0000000000
  H         9.0132300000       14.5558000000        7.8064700000        0.0000000000        0.0000000000        0.0000000000
  O         3.4176800000        3.6370300000       11.3375000000        0.0000000000        0.0000000000        0.0000000000
  H         2.9621900000        4.2584300000       11.9940000000        0.0000000000        0.0000000000        0.0000000000
  H         4.2661000000        3.5861400000       11.9365000000        0.0000000000        0.0000000000        0.0000000000
  O         4.0481900000       10.1319000000       10.7591000000        0.0000000000        0.0000000000        0.0000000000