8
Properties=species:S:1:pos:R:3:forces:R:3 potential_energy=-0.581245 pbc="T T T" Lattice="20.000000 0.000000 0.000000 0.000000 20.000000 0.000000 0.000000 0.000000 20.000000"
X        10.4714346648        7.8871348768       10.5358088632        0.0140522422        0.1900910982       -0.0047126271
X         9.0094331157       11.8297828044        9.2878508149        0.1995929506       -0.1615029621        0.1118974139
X        11.9277709332        9.6478016561        9.5464315578       -0.2046217112        0.0835820846        0.0741204444
X        10.6653533666       10.8608209203        8.2209946131       -0.0482665467       -0.0205977347        0.2698242169
X         9.6420514621        9.8031360928        9.8513715886        0.1748651798        0.1522838566        0.0507798998
X         9.2199372801       11.2942968031       11.4074784360        0.1210463863       -0.0498989030       -0.2151205440
X        11.1613797317        9.7129955092       11.5999818153       -0.0703161310       -0.0107630769       -0.2140342266
X        11.0016444457       11.7334363373       10.2061023111       -0.1863523700       -0.1831943628       -0.0727545774
8
Properties=species:S:1:pos:R:3:forces:R:3 potential_energy=-0.588607 pbc="T T T" Lattice="20.000000 0.000000 0.000000 0.000000 20.000000 0.000000 0.000000 0.000000 20.000000"
X        10.4716440261        7.8899794204       10.5357376223        0.0145209471        0.1919264505       -0.0044963795
X         9.0124142970       11.8273695673        9.2895219822        0.2030815684       -0.1639661654        0.1139141409
X        11.9247122296        9.6490511375        9.5475391363       -0.2074913555        0.0847215094        0.0752989767
X        10.6646326124       10.8605125639        8.2250259018       -0.0491823330       -0.0207038252        0.2741870310
X         9.6446649741        9.8054089760        9.8521315587        0.1773128715        0.1555593754        0.0511162421
X         9.2217463041       11.2935505731       11.4042643609        0.1228281383       -0.0504514867       -0.2186057745
X        11.1603282156        9.7128351249       11.5967823420       -0.0711547843       -0.0110970716       -0.2170319593
X        10.9988619898       11.7306991053       10.2050166467       -0.1899150524       -0.1859887864       -0.0743822775
8
Properties=species:S:1:pos:R:3:forces:R:3 potential_energy=-0.599941 pbc="T T T" Lattice="20.000000 0.000000 0.000000 0.000000 20.000000 0.000000 0.000000 0.000000 20.000000"
X        10.4719637519        7.8942633316       10.5356338105        0.0152451794        0.1947309461       -0.0041588865
X         9.0169191575       11.8237276906        9.2920480891        0.2084880945       -0.1677718209        0.1170409418
X        11.9200974655        9.6509358364        9.5492120195       -0.2119087545        0.0864738078        0.0771176616
X        10.6635424063       10.8600499196        8.2311135640       -0.0506035391       -0.0208588519        0.2809325715
X         9.6486062284        9.8088517065        9.8532726592        0.1810885748        0.1606440559        0.0516203771
X         9.2244760431       11.2924269546       11.3994102327        0.1255789507       -0.0512989174       -0.2239917644
X        11.1587436277        9.7125907027       11.5919549766       -0.0724414034       -0.0116120737       -0.2216444678
X        10.9946539337       11.7265688206       10.2033716020       -0.1954471025       -0.1903071458       -0.0769164332
8
Properties=species:S:1:pos:R:3:forces:R:3 potential_energy=-0.615617 pbc="T T T" Lattice="20.000000 0.000000 0.000000 0.000000 20.000000 0.000000 0.000000 0.000000 20.000000"
X        10.4724017125        7.9000074973       10.5355018919        0.0162522707        0.1985689656       -0.0036830185
X         9.0229891998       11.8188304972        9.2954535644        0.2160391215       -0.1730640053        0.1214106047
X        11.9138937199        9.6534685656        9.5514647931       -0.2180179968        0.0888938074        0.0796420484
X        10.6620711018       10.8594335010        8.2393081384       -0.0525924952       -0.0210566318        0.2903217756
X         9.6538999984        9.8135076476        9.8547948967        0.1863259365        0.1677621757        0.0522900295
X         9.2281463050       11.2909212635       11.3928748108        0.1293995741       -0.0524646529       -0.2314831482
X        11.1566173044        9.7122570472       11.5854648721       -0.0742119056       -0.0123262114       -0.2280195200
X        10.9889767194       11.7210162379       10.2011456341       -0.2031945052       -0.1963134473       -0.0804787715
8
Properties=species:S:1:pos:R:3:forces:R:3 potential_energy=-0.636176 pbc="T T T" Lattice="20.000000 0.000000 0.000000 0.000000 20.000000 0.000000 0.000000 0.000000 20.000000"
X        10.4729695695        7.9072404294       10.5353487041        0.0175817872        0.2035314908       -0.0030437074
X         9.0306826715       11.8126414669        9.2997728299        0.2260700596       -0.1800545780        0.1272196766
X        11.9060555280        9.6566669080        9.5543179947       -0.2260268712        0.0920602464        0.0829675405
X        10.6602020954       10.8586646900        8.2496799473       -0.0552417868       -0.0212866365        0.3027377814
X         9.6605795367        9.8194388939        9.8566968807        0.1932193580        0.1772457695        0.0531191630
X         9.2327843715       11.2890275779       11.3846005023        0.1344370826       -0.0539821904       -0.2413796486
X        11.1539376308        9.7118266041       11.5772637925       -0.0765171293       -0.0132656985       -0.2363698397
X        10.9817687653       11.7140016589       10.1983077414       -0.2135225001       -0.2042484033       -0.0852509657
8
Properties=species:S:1:pos:R:3:forces:R:3 potential_energy=-0.662374 pbc="T T T" Lattice="20.000000 0.000000 0.000000 0.000000 20.000000 0.000000 0.000000 0.000000 20.000000"
X        10.4736834443        7.9159988844       10.5351839587        0.0192884425        0.2097415639       -0.0022058718
X         9.0400772371       11.8051129742        9.3050519249        0.2390607061       -0.1890438240        0.1347492085
X        11.8965233589        9.6605537376        9.5577989930       -0.2362229907        0.0960816048        0.0872275874
X        10.6579129432       10.8577461358        8.2623219473       -0.0586842593       -0.0215314116        0.3187231160
X         9.6686874047        9.8267294113        9.8589751186        0.2020412270        0.1895690609        0.0540947514
X         9.2384259941       11.2867387482       11.3745110083        0.1408983018       -0.0558973571       -0.2541041896
X        11.1506898166        9.7112891308       11.5672884823       -0.0794258169       -0.0144666566       -0.2469890828
X        10.9729474231       11.7054736909       10.1948156990       -0.2269556105       -0.2144529803       -0.0914955190
8
Properties=species:S:1:pos:R:3:forces:R:3 potential_energy=-0.699266 pbc="T T T" Lattice="20.000000 0.000000 0.000000 0.000000 20.000000 0.000000 0.000000 0.000000 20.000000"
X        10.4746690939        7.9275410769       10.5350024473        0.0217096469        0.2182802113       -0.0009875854
X         9.0525977626       11.7951296786        9.3120958018        0.2577444269       -0.2018527845        0.1455888863
X        11.8838892612        9.6657005775        9.5624320992       -0.2505560463        0.1017169023        0.0932639534
X        10.6548501721       10.8565572876        8.2791295423       -0.0636555213       -0.0217850024        0.3415350596
X         9.6794089005        9.8365267918        9.8619346277        0.2145320006        0.2073587250        0.0553170647
X         9.2459065093       11.2837291199       11.3610905181        0.1500730937       -0.0585596905       -0.2722283663
X        11.1464041018        9.7105532976       11.5540642091       -0.0834657998       -0.0161606911       -0.2618937525
X        10.9611565665       11.6941729662       10.1901154567       -0.2463818008       -0.2289976699       -0.1005952598
8
Properties=species:S:1:pos:R:3:forces:R:3 potential_energy=-0.752062 pbc="T T T" Lattice="20.000000 0.000000 0.000000 0.000000 20.000000 0.000000 0.000000 0.000000 20.000000"
X        10.4760366614        7.9426466119       10.5348267322        0.0251966256        0.2301100486        0.0008197669
X         9.0692366629       11.7819512218        9.3214707945        0.2852585132       -0.2204759752        0.1615679128
X        11.8672260339        9.6724800769        9.5685767688       -0.2710019455        0.1097218760        0.1019662856
X        10.6507589211       10.8550403070        8.3013917828       -0.0710120092       -0.0219657413        0.3747667941
X         9.6935085267        9.8496852372        9.8657321344        0.2325383628        0.2336541594        0.0567675793
X         9.2557797503       11.2798012029       11.3433044390        0.1633482204       -0.0623018601       -0.2985555206
X        11.1407849793        9.7095433589       11.5366182191       -0.0891322881       -0.0185811069       -0.2831058553
X        10.9454267020       11.6792691060       10.1837876559       -0.2751954793       -0.2501614005       -0.1142269628
8
Properties=species:S:1:pos:R:3:forces:R:3 potential_energy=-0.829778 pbc="T T T" Lattice="20.000000 0.000000 0.000000 0.000000 20.000000 0.000000 0.000000 0.000000 20.000000"
X        10.4779547161        7.9623430579       10.5347056650        0.0303415919        0.2467642185        0.0035808471
X         9.0913977987       11.7645577333        9.3339817301        0.3273684717       -0.2484777945        0.1860445413
X        11.8452668971        9.6813982551        9.5767349103       -0.3009134677        0.1213671911        0.1148777401
X        10.6452722815       10.8531336499        8.3309063249       -0.0823331737       -0.0218510510        0.4248578008
X         9.7120222884        9.8674473048        9.8705479192        0.2592973225        0.2740205683        0.0582872890
X         9.2688078026       11.2746970867       11.3197089441        0.1831700599       -0.0676711328       -0.3380626155
X        11.1334392634        9.7081465463       11.5136211291       -0.0972231975       -0.0221116671       -0.3140283856
X        10.9243677049       11.6596218151       10.1752142809       -0.3197076071       -0.2820403324       -0.1355572171
8
Properties=species:S:1:pos:R:3:forces:R:3 potential_energy=-0.949417 pbc="T T T" Lattice="20.000000 0.000000 0.000000 0.000000 20.000000 0.000000 0.000000 0.000000 20.000000"
X        10.4806900298        7.9880135601       10.5347380846        0.0382041474        0.2708512363        0.0079706881
X         9.1211619433       11.7414874816        9.3508271559        0.3957849552       -0.2928468899        0.2258172884
X        11.8162226513        9.6931639824        9.5876348325       -0.3464180304        0.1389512953        0.1348917367
X        10.6378354505       10.8507833743        8.3702869318       -0.1008276507       -0.0208224269        0.5044661892
X         9.7364043211        9.8917068276        9.8765754515        0.3009989797        0.3396568395        0.0592712313
X         9.2860805618       11.2680725555       11.2882055579        0.2142489299       -0.0756333183       -0.4003990048
X        11.1238308610        9.7061901720       11.4831958832       -0.1090941741       -0.0274124004       -0.3608060809
X        10.8958854697       11.6336014365       10.1634350291       -0.3928971571       -0.3327443355       -0.1712120480
8
Properties=species:S:1:pos:R:3:forces:R:3 potential_energy=-1.147092 pbc="T T T" Lattice="20.000000 0.000000 0.000000 0.000000 20.000000 0.000000 0.000000 0.000000 20.000000"
X        10.4846814261        8.0215750727       10.5351195068        0.0508253565        0.3072133337        0.0153287793
X         9.1618268121       11.7105207986        9.3739141253        0.5177885119       -0.3691314291        0.2966023568
X        11.7774469304        9.7088143806        9.6023902567       -0.4198460249        0.1670496424        0.1680087155
X        10.6275503410       10.8479764395        8.4235673256       -0.1339241607       -0.0170073489        0.6417926468
X         9.7688048341        9.9255402429        9.8839838616        0.3709493944        0.4562126348        0.0575879170
X         9.3092456839       11.2594530428       11.2455647616        0.2667802971       -0.0880588931       -0.5066151587
X        11.1112043794        9.7034014663       11.4425705104       -0.1271883053       -0.0356682103       -0.4355790619
X        10.8565971488       11.5987360886       10.1468446836       -0.5253850690       -0.4206097295       -0.2371261949
8
Properties=species:S:1:pos:R:3:forces:R:3 potential_energy=-1.514010 pbc="T T T" Lattice="20.000000 0.000000 0.000000 0.000000 20.000000 0.000000 0.000000 0.000000 20.000000"
X        10.4906848749        8.0657990393       10.5362384388        0.0725315363        0.3659698354        0.0285514990
X         9.2191708828       11.6679776237        9.4065882408        0.7709357265       -0.5189053715        0.4423586654
X        11.7247593986        9.7299647453        9.6228337200       -0.5494570527        0.2160551653        0.2284812442
X        10.6128130246       10.8448425967        8.4975492724       -0.2023830552       -0.0037745714        0.9120276929
X         9.8126683369        9.9744271630        9.8927938949        0.5029438445        0.6947467422        0.0449911238
X         9.3410083010       11.2481503099       11.1863828631        0.3667950029       -0.1090816498       -0.7109824428
X        11.0944477466        9.6993349840       11.3873849542       -0.1561578540       -0.0490518732       -0.5653674913
X        10.8004432618       11.5509108155       10.1224608030       -0.8052081485       -0.5959582770       -0.3800602912
8
Properties=species:S:1:pos:R:3:forces:R:3 potential_energy=-2.276262 pbc="T T T" Lattice="20.000000 0.000000 0.000000 0.000000 20.000000 0.000000 0.000000 0.000000 20.000000"
X        10.5000805686        8.1249612253       10.5388872062        0.1137895216        0.4718942200        0.0546558211
X         9.2930251316       11.6154056546        9.4487988792        1.3420583890       -0.8426565477        0.7789988556
X        11.6508802993        9.7593803140        9.6523183991       -0.8065993980        0.3094078704        0.3589686866
X        10.5923835459       10.8422734692        8.5954064948       -0.3588262594        0.0309967072        1.4998283385
X         9.8742708067       10.0496475970        9.9024269766        0.7900615734        1.2583614281       -0.0020084883
X         9.3864200158       11.2330787061       11.1003711196        0.5859014260       -0.1518712438       -1.1610886910
X        11.0718304325        9.6932404378       11.3101240016       -0.2039510109       -0.0717992156       -0.8198907134
X        10.7268482476       11.4919074646       10.0892587177       -1.4624342417       -1.0043332187       -0.7094638092
8
Properties=species:S:1:pos:R:3:forces:R:3 potential_energy=-3.623994 pbc="T T T" Lattice="20.000000 0.000000 0.000000 0.000000 20.000000 0.000000 0.000000 0.000000 20.000000"
X        10.5155984460        8.2064071336       10.5447632354        0.1927904170        0.6900590218        0.1056579448
X         9.3679468474       11.5651563571        9.4919468177        2.3787620304       -1.4207827345        1.3917808393
X        11.5641368437        9.7933753753        9.6886489470       -1.2565261891        0.4509888154        0.6380680184
X        10.5706162153       10.8418530343        8.6930077579       -0.6514760026        0.1008895980        2.5376561960
X         9.9327363259       10.1306187108        9.9074729458        1.3180170364        2.3180966183       -0.1196619462
X         9.4319265814       11.2194754396       11.0123705308        0.9629928966       -0.2163084124       -1.9434894823
X        11.0454930877        9.6852995027       11.2139819930       -0.2692795448       -0.1334925394       -1.2986507175
X        10.6517308443       11.4360529320       10.0540785114       -2.6752806437       -1.7894503672       -1.3113608525
8
Properties=species:S:1:pos:R:3:forces:R:3 potential_energy=-5.915727 pbc="T T T" Lattice="20.000000 0.000000 0.000000 0.000000 20.000000 0.000000 0.000000 0.000000 20.000000"
X        10.5376739124        8.3033974014       10.5550375602        0.3412016728        1.1097604709        0.1984348989
X         9.4438415652       11.5172302449        9.5360271941        3.6368984589       -2.3704159832        2.1992296446
X        11.4781847055        9.8257418198        9.7282045183       -1.9527668913        0.6384716272        1.1427556698
X        10.5472628120       10.8436196256        8.7902265714       -1.1893864184        0.2159516620        4.1966558728
X         9.9864958234       10.2149390242        9.9074386359        2.0708759810        4.0882130918       -0.4011625238
X         9.4767757889       11.2077178106       10.9237685740        1.5836729935       -0.3146731483       -3.2393927010
X        11.0219859263        9.6763929536       11.1171931159       -0.3491167463       -0.2849846127       -2.0867990713
X        10.5755745602       11.3825554856       10.0174964991       -4.1413790503       -3.0823231077       -2.0097217901
8
Properties=species:S:1:pos:R:3:forces:R:3 potential_energy=-8.907043 pbc="T T T" Lattice="20.000000 0.000000 0.000000 0.000000 20.000000 0.000000 0.000000 0.000000 20.000000"
X        10.5630088191        8.3992066008       10.5684069209        0.5885857477        1.8222159633        0.3261089909
X         9.5191153930       11.4688813854        9.5807064804       -2.4487854156       -2.6152217415       -0.0552886821
X        11.3935544793        9.8555442211        9.7723581329       -2.9093178805        0.8711181413        1.8862707331
X        10.5218120775       10.8470982087        8.8868710724       -1.9119127918        0.1445885417        5.4412219494
X        10.0354763222       10.3019846493        9.9025427306        1.4770388525        3.4992427798       -0.8535270355
X         9.5210496796       11.1975857878       10.8346778073        2.4430558554       -0.5240727110       -4.9468229633
X        11.0020159082        9.6652690100       11.0198408881       -0.4602258418       -0.5646483597       -3.1904820012
X        10.5001827763       11.3278758633        9.9810792254        3.2215614741       -2.6332226139        1.3925190088
8
Properties=species:S:1:pos:R:3:forces:R:3 potential_energy=-6.853977 pbc="T T T" Lattice="20.000000 0.000000 0.000000 0.000000 20.000000 0.000000 0.000000 0.000000 20.000000"
X        10.5908691140        8.4940518027       10.5835129343        0.8825639673        2.6968905485        0.3691112875
X         9.5429435207       11.3798327362        9.6194693288      -14.9770119406        0.3246368971       -6.4376871294
X        11.3104762743        9.8825926177        9.8210037503       -3.6917304800        1.5167650496        1.4949070300
X        10.4924058554       10.8500820995        8.9824031116       -0.5316453664       -1.4586590012       -5.9764968674
X        10.0797602652       10.3907603962        9.8899809173      -33.2687196665      -69.3957648778       -3.3449741780
X         9.5652215032       11.1878145597       10.7454961214        2.8304909975       -1.3854834694       -4.0981414408
X        10.9850581504        9.6509902072       10.9223290927       -0.9526111784       -1.0124246770       -3.1272810696
X        10.4811244031       11.2304399171        9.9691203460       49.7086636671       68.7140395302       21.1205623677
8
Properties=species:S:1:pos:R:3:forces:R:3 potential_energy=-5.857477 pbc="T T T" Lattice="20.000000 0.000000 0.000000 0.000000 20.000000 0.000000 0.000000 0.000000 20.000000"
X        10.5808151955        8.4551296714       10.5763915621        0.6843094692        2.3427858728        0.3937256032
X         9.4150723915       11.5164237690        9.5213956008        3.2524934641       -1.7585943473        2.3716251972
X        11.3795508513        9.8649085988        9.7703812167       -2.5806980927        0.2849041754        2.0086025957
X        10.5565919393       10.8204821213        8.6563006911       -0.6554557240        0.1110682624        2.6594713794
X         9.9420713779       10.1112284358        9.9124449367        2.1508770368        2.4784303480        0.3783520295
X         9.5116737583       11.1880698310       10.8782808275        1.6345409764       -0.1913303991       -3.4572966248
X        10.9940623806        9.6553620737       11.0099815711       -0.6543251432       -1.0077412433       -3.3632678833
X        10.5668408631       11.4565110421       10.0113833652       -3.8317419865       -2.2595226689       -0.9912122968
8
Properties=species:S:1:pos:R:3:forces:R:3 potential_energy=11.220722 pbc="T T T" Lattice="20.000000 0.000000 0.000000 0.000000 20.000000 0.000000 0.000000 0.000000 20.000000"
X        10.5800587051        8.4537784951       10.5764854843        0.7412507910        2.2348534442        0.4371481425
X         9.4846316975       11.5084746713        9.5550097684      -16.7118459884        4.0532293431       -5.9282568012
X        11.3837902774        9.8602081209        9.7723413526       -2.9589475636        0.8107812796        2.0591701209
X        10.5561195094       10.8264718142        8.6892534205       -1.3238701164        0.1679207657        4.6247551749
X        10.0772238414       10.3854826749        9.9266522331     -108.1924353507     -303.3866832711       -0.5418251334
X         9.5071103074       11.1926264252       10.8807261336        2.4026321814       -0.7644973629       -4.8822110105
X        10.9952005667        9.6553799446       11.0090811035       -0.5911156752       -0.8349239116       -3.3883669655
X        10.3625438526       11.1856933969        9.9270102753      126.6343317219      297.7193197130        7.6195864723
8
Properties=species:S:1:pos:R:3:forces:R:3 potential_energy=-7.318977 pbc="T T T" Lattice="20.000000 0.000000 0.000000 0.000000 20.000000 0.000000 0.000000 0.000000 20.000000"
X        10.5801130236        8.4536755342       10.5765269067        0.7270286879        2.2643964826        0.4233928920
X         9.4655869461       11.5140187935        9.5470921917       -7.7820743324       -0.0279610351       -2.0547833587
X        11.3834294507        9.8607097753        9.7723895909       -2.9152192028        0.6380077446        2.0478515491
X        10.5554818832       10.8265260480        8.6911281803       -1.1471375169        0.2447732144        4.1829483935
X        10.0415824898       10.2889286282        9.9261230929       -1.2133280183       -4.8873552528       -0.1702773973
X         9.5078430191       11.1920796592       10.8793668530        2.1670267063       -0.5396106351       -4.4855619849
X        10.9952608647        9.6555448017       11.0090571606       -0.6379900229       -0.8754403424       -3.4178625247
X        10.4053294385       11.2798448912        9.9303103030       10.8016936991        3.1831898238        3.4742924309
8
Properties=species:S:1:pos:R:3:forces:R:3 potential_energy=-7.300111 pbc="T T T" Lattice="20.000000 0.000000 0.000000 0.000000 20.000000 0.000000 0.000000 0.000000 20.000000"
X        10.5815087850        8.4579699307       10.5773436588        0.7252017050        2.3618160274        0.4081501474
X         9.4420126163       11.5168769493        9.5397832335        0.4349386325       -1.8286737357        1.2746014851
X        11.3778217449        9.8620538093        9.7763149519       -2.9284707465        0.4856844356        2.0867929330
X        10.5531372984       10.8269443647        8.6995325517       -0.9636697548        0.2829674279        3.7817591377
X        10.0104473192       10.1939045118        9.9251139113        2.5961456737        3.8421042522        0.1182703007
X         9.5121959328       11.1908768197       10.8704218207        1.9259491299       -0.3409714741       -4.1001338916
X        10.9940791462        9.6539062348       11.0025678573       -0.6973170769       -0.9402699699       -3.5167801117
X        10.4636666718       11.3603558381        9.9410226619       -1.0927775629       -3.8626569635       -0.0526600006
8
Properties=species:S:1:pos:R:3:forces:R:3 potential_energy=-7.712528 pbc="T T T" Lattice="20.000000 0.000000 0.000000 0.000000 20.000000 0.000000 0.000000 0.000000 20.000000"
X        10.5813327941        8.4574595884       10.5772368083        0.7390415564        2.3213650197        0.4232767613
X         9.4480099249       11.5157262998        9.5419144459       -3.0856810971       -1.2050618648       -0.1183590416
X        11.3785252761        9.8618336291        9.7758312797       -2.9601354912        0.6078398942        2.0883163434
X        10.5534936242       10.8269072689        8.6983333502       -1.1078073467        0.2451886335        4.1353363066
X        10.0353319666       10.2688787899        9.9259286327        0.9187826644        0.4754403149       -0.0893654905
X         9.5115670137       11.1910962131       10.8716802599        2.1308273716       -0.5074890811       -4.4401457981
X        10.9942082765        9.6540916366       11.0033514852       -0.6592739130       -0.9011163019       -3.4853702763
X        10.4204945575       11.3002126853        9.9331303428        4.0242462555       -1.0361666145        1.4863111952
8
Properties=species:S:1:pos:R:3:forces:R:3 potential_energy=-7.757745 pbc="T T T" Lattice="20.000000 0.000000 0.000000 0.000000 20.000000 0.000000 0.000000 0.000000 20.000000"
X        10.5816833795        8.4585758045       10.5774363138        0.7437788517        2.3355505802        0.4242738344
X         9.4472257848       11.5150626025        9.5421093639       -2.8497727645       -1.2626062168       -0.0134301835
X        11.3771211939        9.8621012598        9.7768255547       -2.9791010001        0.6124486437        2.1006710815
X        10.5529967959       10.8270296941        8.7002209574       -1.1133633272        0.2429724307        4.1605873616
X        10.0362601429       10.2698060142        9.9259046734        0.8733632389        0.3401782502       -0.0936317033
X         9.5125362309       11.1908864355       10.8696450935        2.1420319012       -0.5129404247       -4.4649645714
X        10.9938865175        9.6536541439       11.0016808040       -0.6628537206       -0.9047879987       -3.5031951797
X        10.4214770748       11.2992184910        9.9335559961        3.8459168204       -0.8508152644        1.3896893604
8
Properties=species:S:1:pos:R:3:forces:R:3 potential_energy=-7.827325 pbc="T T T" Lattice="20.000000 0.000000 0.000000 0.000000 20.000000 0.000000 0.000000 0.000000 20.000000"
X        10.5822124159        8.4602485430       10.5777377330        0.7507376661        2.3568924717        0.4255550716
X         9.4457190525       11.5141578271        9.5422512231       -2.4135701404       -1.3664119247        0.1758907256
X        11.3750068357        9.8625201661        9.7783196193       -3.0073307238        0.6188834810        2.1185225049
X        10.5522324650       10.8272069970        8.7031004636       -1.1201181383        0.2394010367        4.1958681289
X        10.0374687222       10.2707010324        9.9258317654        0.8402898068        0.2240280577       -0.0985924312
X         9.5140174920       11.1905484628       10.8665463156        2.1571408299       -0.5202119422       -4.4985909210
X        10.9934079758        9.6530022182       10.9991740671       -0.6685776139       -0.9103521034       -3.5293775354
X        10.4234674981       11.2981955311        9.9343281904        3.4614283136       -0.6422290767        1.2107244565
8
Properties=species:S:1:pos:R:3:forces:R:3 potential_energy=-7.919114 pbc="T T T" Lattice="20.000000 0.000000 0.000000 0.000000 20.000000 0.000000 0.000000 0.000000 20.000000"
X        10.5829213445        8.4624830755       10.5781407400        0.7598658937        2.3853221259        0.4269635000
X         9.4436305733       11.5129366426        9.5424274639       -1.8457934365       -1.5011040937        0.4217352090
X        11.3721752800        9.8630907183        9.7803177658       -3.0446546983        0.6271422457        2.1410208523
X        10.5511999339       10.8274381359        8.7069805284       -1.1284210561        0.2345685117        4.2414718932
X        10.0389369503       10.2715220749        9.9257111683        0.8212962981        0.1319843847       -0.1042833115
X         9.5160139246       11.1900814409       10.8623756011        2.1761009139       -0.5292288334       -4.5417247538
X        10.9927708202        9.6521344027       10.9958251550       -0.6767164864       -0.9177194748       -3.5630428188
X        10.4263360957       11.2971730507        9.9353885510        2.9383225715       -0.4309648661        0.9778594296
8
Properties=species:S:1:pos:R:3:forces:R:3 potential_energy=-8.031361 pbc="T T T" Lattice="20.000000 0.000000 0.000000 0.000000 20.000000 0.000000 0.000000 0.000000 20.000000"
X        10.5838121884        8.4652863874       10.5786447978        0.7710752379        2.4206776125        0.4282712430
X         9.4411607590       11.5112860135        9.5427660699       -1.2205004205       -1.6503603178        0.6942723467
X        11.3686172423        9.8638140862        9.7828250347       -3.0907829709        0.6373080284        2.1668066180
X        10.5498982937       10.8277210895        8.7118723564       -1.1387233508        0.2285851106        4.2978126521
X        10.0406470434       10.2722357120        9.9255434032        0.8181475937        0.0693173561       -0.1107379682
X         9.5185295031       11.1894835347       10.8571223747        2.1988220241       -0.5399095651       -4.5952710486